# vtk DataFile Version 3.0
PulseMoM Current Distribution
ASCII
DATASET UNSTRUCTURED_GRID
POINTS 4922 float
9.910852e+01 3.750000e+01 -4.205047e+01
9.160852e+01 4.000000e+01 -4.955047e+01
9.160852e+01 4.500000e+01 -4.455047e+01
9.910852e+01 5.355125e+00 -4.205047e+01
9.160852e+01 1.011114e+01 -4.955047e+01
9.160852e+01 4.500000e+01 2.426848e+01
9.910852e+01 3.750000e+01 2.176848e+01
5.696374e+01 4.000000e+01 -4.955047e+01
5.696374e+01 4.500000e+01 -4.455047e+01
9.910852e+01 5.355125e+00 2.176848e+01
5.700508e+01 0.000000e+00 -4.955047e+01
5.700508e+01 0.000000e+00 2.926848e+01
9.160852e+01 1.011114e+01 2.926848e+01
-4.855143e+01 -5.551115e-15 -4.955047e+01
-8.753697e+01 1.862350e+01 -4.955047e+01
-8.753697e+01 3.500000e+01 -4.955047e+01
-2.454512e+01 3.500000e+01 -4.955047e+01
-2.454512e+01 1.977414e+01 -4.955047e+01
5.696374e+01 1.977414e+01 -4.955047e+01
5.696374e+01 4.500000e+01 2.426848e+01
9.160852e+01 4.000000e+01 2.926848e+01
5.696374e+01 4.000000e+01 2.926848e+01
5.696374e+01 1.977414e+01 2.926848e+01
-5.755658e+01 -5.422127e-17 2.176848e+01
-5.157411e+01 0.000000e+00 2.883335e+01
-5.755658e+01 4.647575e-16 -4.205047e+01
5.433057e+01 0.000000e+00 2.926848e+01
5.433057e+01 0.000000e+00 2.844953e+01
-5.157411e+01 0.000000e+00 2.844953e+01
-2.454512e+01 1.977414e+01 2.926848e+01
-2.454512e+01 3.500000e+01 2.926848e+01
-8.753697e+01 3.500000e+01 2.926848e+01
-8.753697e+01 1.862350e+01 2.926848e+01
-5.157411e+01 4.544374e+00 2.926848e+01
-5.157411e+01 5.000000e+00 2.926848e+01
5.433057e+01 5.000000e+00 2.926848e+01
-9.148200e+01 9.484313e+00 -4.205047e+01
-9.503697e+01 1.175081e+01 -4.205047e+01
-9.503697e+01 3.500000e+01 -4.205047e+01
-8.753697e+01 4.500000e+01 -3.955047e+01
-2.454512e+01 4.500000e+01 -3.955047e+01
-2.454512e+01 4.500000e+01 1.926848e+01
-9.148200e+01 9.484313e+00 2.176848e+01
5.433057e+01 5.000000e+00 2.844953e+01
-5.157411e+01 5.000000e+00 2.844953e+01
-8.753697e+01 4.499880e+01 1.942366e+01
-2.532946e+01 4.500000e+01 1.926848e+01
-2.532946e+01 4.499880e+01 1.942366e+01
-9.503697e+01 1.175081e+01 2.176848e+01
-9.503697e+01 3.500000e+01 2.176848e+01
-9.503697e+01 3.749518e+01 1.942366e+01
-9.503697e+01 3.000000e+01 1.942366e+01
-9.503697e+01 3.000000e+01 -3.478748e+01
-9.503697e+01 3.750000e+01 -3.478748e+01
-9.503697e+01 3.750000e+01 -3.955047e+01
-8.753697e+01 4.500000e+01 -3.478748e+01
-2.532946e+01 4.500000e+01 -3.478748e+01
-2.532946e+01 3.000000e+01 -3.478748e+01
-2.532946e+01 3.000000e+01 1.942366e+01
-2.524943e+01 3.831759e+01 2.626848e+01
-2.524943e+01 3.831759e+01 2.926848e+01
-2.524943e+01 3.500000e+01 2.626848e+01
-2.524943e+01 3.500000e+01 2.926848e+01
5.696374e+01 3.831759e+01 2.926848e+01
5.696374e+01 3.831759e+01 2.626848e+01
5.696374e+01 1.977414e+01 2.626848e+01
-2.454512e+01 1.977414e+01 2.626848e+01
-2.454512e+01 3.500000e+01 2.626848e+01
-2.454512e+01 3.500000e+01 2.926848e+01
-2.454512e+01 1.977414e+01 2.926848e+01
5.696374e+01 1.977414e+01 2.926848e+01
-2.524943e+01 3.831759e+01 2.626848e+01
-2.524943e+01 3.831759e+01 2.926848e+01
-2.524943e+01 3.500000e+01 2.626848e+01
-2.524943e+01 3.500000e+01 2.926848e+01
5.696374e+01 3.831759e+01 2.926848e+01
5.696374e+01 3.831759e+01 2.626848e+01
5.696374e+01 1.977414e+01 2.626848e+01
-2.454512e+01 1.977414e+01 2.626848e+01
-2.454512e+01 3.500000e+01 2.626848e+01
5.696374e+01 1.977414e+01 2.926848e+01
-2.454512e+01 1.977414e+01 2.926848e+01
-2.454512e+01 3.500000e+01 2.926848e+01
-6.059985e+01 4.000000e+00 -5.055047e+01
-6.059985e+01 4.000000e+00 -4.955047e+01
-5.775949e+01 4.000000e+00 -5.055047e+01
-5.775949e+01 4.000000e+00 -5.955047e+01
-5.630019e+01 4.000000e+00 -5.955047e+01
-5.630019e+01 4.000000e+00 -4.955047e+01
-1.093504e+02 0.000000e+00 -4.955047e+01
-1.023988e+02 0.000000e+00 -4.955047e+01
-1.093504e+02 0.000000e+00 -5.955047e+01
-1.071889e+02 0.000000e+00 -5.955047e+01
-1.023988e+02 0.000000e+00 -5.055047e+01
-1.071889e+02 0.000000e+00 -5.055047e+01
-1.023988e+02 0.000000e+00 2.844953e+01
-1.023988e+02 0.000000e+00 2.944953e+01
-5.755658e+01 0.000000e+00 2.944953e+01
-5.755658e+01 0.000000e+00 2.844953e+01
-1.116377e+02 0.000000e+00 2.844953e+01
-5.267121e+01 0.000000e+00 2.844953e+01
-1.084757e+02 0.000000e+00 2.944953e+01
-1.084757e+02 0.000000e+00 3.844953e+01
-1.116377e+02 0.000000e+00 3.844953e+01
-5.483275e+01 0.000000e+00 3.844953e+01
-5.483275e+01 0.000000e+00 2.944953e+01
-5.267121e+01 0.000000e+00 3.844953e+01
5.700508e+01 0.000000e+00 -5.055047e+01
5.700508e+01 0.000000e+00 -4.955047e+01
1.037233e+02 0.000000e+00 -4.955047e+01
1.037233e+02 0.000000e+00 -5.055047e+01
5.433057e+01 0.000000e+00 -5.055047e+01
5.433057e+01 2.409453e+00 -5.055047e+01
1.064540e+02 0.000000e+00 -5.055047e+01
5.433057e+01 0.000000e+00 -4.955047e+01
5.433057e+01 4.000000e+00 -5.955047e+01
5.276068e+01 4.000000e+00 -5.955047e+01
5.433057e+01 4.000000e+00 -4.955047e+01
5.276068e+01 4.000000e+00 -4.955047e+01
5.433057e+01 2.409453e+00 -5.955047e+01
1.096161e+02 0.000000e+00 -4.955047e+01
1.096161e+02 0.000000e+00 -5.955047e+01
1.064540e+02 0.000000e+00 -5.955047e+01
5.700508e+01 0.000000e+00 2.844953e+01
5.700508e+01 0.000000e+00 2.944953e+01
1.037233e+02 0.000000e+00 2.944953e+01
1.037233e+02 0.000000e+00 2.844953e+01
5.433057e+01 0.000000e+00 2.844953e+01
5.433057e+01 4.035691e+00 2.844953e+01
1.073288e+02 0.000000e+00 2.844953e+01
5.433057e+01 0.000000e+00 2.944953e+01
5.433057e+01 4.035691e+00 3.844953e+01
5.433057e+01 2.763213e+00 2.944953e+01
5.433057e+01 2.763213e+00 3.844953e+01
1.051673e+02 0.000000e+00 3.844953e+01
1.073288e+02 0.000000e+00 3.844953e+01
1.051673e+02 0.000000e+00 2.944953e+01
5.433057e+01 4.000000e+00 -6.402050e+01
-5.157411e+01 4.000000e+00 -6.402050e+01
5.433057e+01 4.000000e+00 -4.955047e+01
-5.157411e+01 4.000000e+00 -4.955047e+01
-5.157411e+01 6.759715e+00 -5.955047e+01
5.433057e+01 6.759715e+00 -5.955047e+01
-5.157411e+01 6.759715e+00 -4.955047e+01
5.433057e+01 6.759715e+00 -4.955047e+01
5.398049e+01 1.675971e+01 -5.605047e+01
5.398049e+01 1.175971e+01 -6.105047e+01
-5.157411e+01 1.175971e+01 -6.105047e+01
-5.157411e+01 1.675971e+01 -5.605047e+01
5.398049e+01 6.759715e+00 -6.105047e+01
-5.157411e+01 6.759715e+00 -6.105047e+01
5.398049e+01 1.675971e+01 -4.955047e+01
5.398049e+01 6.759715e+00 -4.955047e+01
-5.157411e+01 6.759715e+00 -4.955047e+01
-5.157411e+01 1.675971e+01 -4.955047e+01
5.433057e+01 5.000000e+00 5.044953e+01
5.433057e+01 6.759715e+00 4.246376e+01
-5.157411e+01 6.759715e+00 4.246376e+01
-5.157411e+01 5.000000e+00 5.044953e+01
-5.157411e+01 6.759715e+00 2.844953e+01
-5.157411e+01 5.000000e+00 2.844953e+01
5.433057e+01 5.000000e+00 2.844953e+01
5.433057e+01 6.759715e+00 2.844953e+01
5.398049e+01 1.175971e+01 3.944953e+01
5.398049e+01 1.675971e+01 3.444953e+01
-5.157411e+01 1.675971e+01 3.444953e+01
-5.157411e+01 1.175971e+01 3.944953e+01
5.398049e+01 6.759715e+00 3.944953e+01
5.398049e+01 6.759715e+00 2.794953e+01
5.398049e+01 1.675971e+01 2.794953e+01
-5.157411e+01 6.759715e+00 3.944953e+01
-5.157411e+01 1.675971e+01 2.794953e+01
-5.157411e+01 6.759715e+00 2.794953e+01
-9.303697e+01 3.000000e+01 -2.991125e+01
-9.503697e+01 3.000000e+01 -2.791125e+01
-9.503697e+01 3.600000e+01 -2.791125e+01
-9.303697e+01 3.600000e+01 -2.991125e+01
-9.503697e+01 4.500000e+01 -1.891125e+01
-9.303697e+01 4.700000e+01 -1.891125e+01
-9.503697e+01 4.500000e+01 3.076016e+00
-9.303697e+01 4.700000e+01 3.076016e+00
-9.503697e+01 3.600000e+01 1.207602e+01
-9.303697e+01 3.600000e+01 1.407602e+01
-9.503697e+01 3.000000e+01 1.207602e+01
-9.303697e+01 3.000000e+01 1.407602e+01
-2.532946e+01 3.600000e+01 -2.991125e+01
-2.532946e+01 3.000000e+01 -2.991125e+01
-2.532946e+01 4.700000e+01 -1.891125e+01
-2.532946e+01 4.700000e+01 3.076016e+00
-2.532946e+01 3.600000e+01 1.407602e+01
-2.532946e+01 3.000000e+01 1.407602e+01
-9.703697e+01 3.906430e+01 -2.222006e+01
-9.653697e+01 3.906430e+01 -2.272006e+01
-9.653697e+01 4.239448e+01 -1.938988e+01
-9.503697e+01 4.239448e+01 -1.938988e+01
-9.703697e+01 3.915645e+01 2.857543e+00
-9.653697e+01 3.915645e+01 2.357543e+00
-9.653697e+01 4.228956e+01 5.490646e+00
-9.503697e+01 4.228956e+01 5.490646e+00
-5.157411e+01 4.000000e+00 -4.955047e+01
-5.157411e+01 4.000000e+00 -6.402050e+01
-6.357411e+01 4.000000e+00 -4.955047e+01
-6.357411e+01 4.000000e+00 -5.572281e+01
-6.324986e+01 4.000000e+00 -6.402050e+01
-6.154274e+01 6.759715e+00 -5.955047e+01
-5.157411e+01 6.759715e+00 -5.955047e+01
-6.357411e+01 6.759715e+00 -5.505047e+01
-6.357411e+01 1.075971e+01 -4.955047e+01
-6.357411e+01 1.075971e+01 -5.505047e+01
-5.757411e+01 1.675971e+01 -5.605047e+01
-5.757411e+01 1.175971e+01 -6.105047e+01
-5.757411e+01 1.675971e+01 -4.955047e+01
-5.757411e+01 6.759715e+00 -6.105047e+01
-5.157411e+01 6.759715e+00 -6.105047e+01
-5.157411e+01 1.675971e+01 -4.955047e+01
-5.157411e+01 1.675971e+01 -5.605047e+01
-5.157411e+01 1.175971e+01 -6.105047e+01
-6.107411e+01 1.175971e+01 3.944953e+01
-6.107411e+01 1.675971e+01 3.444953e+01
-6.757411e+01 1.025971e+01 3.294953e+01
-6.757411e+01 6.759715e+00 3.294953e+01
-6.107411e+01 6.759715e+00 3.944953e+01
-6.107411e+01 1.675971e+01 2.794953e+01
-6.757411e+01 1.025971e+01 2.794953e+01
-6.757411e+01 6.759715e+00 2.794953e+01
-5.157411e+01 6.759715e+00 2.794953e+01
-5.157411e+01 6.759715e+00 3.944953e+01
-5.157411e+01 1.675971e+01 2.794953e+01
-5.157411e+01 1.175971e+01 3.944953e+01
-5.157411e+01 1.675971e+01 3.444953e+01
7.855464e+01 -9.921946e+00 3.400000e+01
7.855464e+01 -9.921946e+00 3.200000e+01
8.177605e+01 -7.929674e+00 3.400000e+01
8.177605e+01 -7.929674e+00 3.300000e+01
8.067638e+01 -7.697663e+00 3.300000e+01
8.067638e+01 -7.697663e+00 3.400000e+01
8.272020e+01 -3.053965e+00 3.400000e+01
8.177605e+01 -3.053965e+00 3.400000e+01
8.272020e+01 -3.053965e+00 3.300000e+01
8.177605e+01 -3.053965e+00 3.300000e+01
8.272020e+01 -8.826710e+00 3.400000e+01
8.272020e+01 -8.826710e+00 3.300000e+01
7.845403e+01 -3.053965e+00 3.400000e+01
7.771222e+01 -3.053965e+00 3.400000e+01
7.978676e+01 -7.929674e+00 3.400000e+01
7.513201e+01 -4.924616e+00 3.400000e+01
[...]
POINT_DATA 4922
SCALARS current_magnitude float 1
LOOKUP_TABLE default
2.907461e-02
2.822140e-02
2.554121e-02
1.893287e-02
2.007470e-02
3.162926e-02
2.703067e-02
1.417665e-02
1.274147e-02
1.611406e-02
9.348643e-03
2.770738e-02
1.784602e-02
1.626831e-02
2.542144e-02
3.181063e-02
1.106568e-02
8.218896e-03
1.034510e-02
1.381938e-02
3.692901e-02
1.636693e-02
1.308880e-02
3.204652e-02
1.376339e-01
1.668530e-02
4.173523e-02
3.249136e-02
9.693325e-02
1.476891e-02
1.422398e-02
2.607376e-02
2.794808e-02
8.770378e-02
5.686839e-02
3.484241e-02
2.899475e-02
3.552242e-02
5.577285e-02
3.908508e-02
1.759594e-02
2.359073e-02
3.163561e-02
3.914481e-02
8.528600e-02
3.769542e-02
2.381186e-02
2.259839e-02
3.743954e-02
4.706301e-02
5.293537e-02
2.702254e-02
2.910268e-02
5.166684e-02
6.645742e-02
3.640384e-02
1.922920e-02
1.338691e-02
1.726680e-02
4.442028e-02
5.083146e-02
5.716365e-02
6.285952e-02
1.181519e-02
1.423989e-02
9.846729e-03
1.820484e-02
3.316574e-02
4.247835e-02
2.461397e-02
8.892583e-03
4.828877e-02
5.011612e-02
5.759453e-02
6.211170e-02
1.258750e-02
1.387028e-02
1.025767e-02
1.942806e-02
3.482439e-02
9.585541e-03
1.888197e-02
3.770589e-02
5.342962e-02
5.647355e-02
5.456342e-02
3.076465e-02
3.405645e-02
4.674522e-02
3.301390e-02
3.400922e-02
3.130345e-02
2.884649e-02
3.346490e-02
3.405948e-02
4.109188e-02
3.741031e-02
3.224384e-02
3.094177e-02
3.671175e-02
2.484692e-02
3.680102e-02
2.820869e-02
3.073492e-02
2.235368e-02
2.714641e-02
2.298270e-02
3.628291e-02
3.960742e-02
4.855733e-02
5.867502e-02
4.648843e-02
4.362594e-02
4.775914e-02
5.057657e-02
3.782668e-02
3.491050e-02
4.451886e-02
3.684809e-02
3.412031e-02
3.998021e-02
3.378400e-02
3.225508e-02
5.877703e-02
7.290604e-02
5.076862e-02
4.784387e-02
8.330520e-02
5.126436e-02
4.223371e-02
9.409313e-02
2.935459e-02
5.804137e-02
2.710853e-02
3.169837e-02
3.500086e-02
4.610491e-02
2.409343e-02
1.866560e-02
2.040368e-02
1.632601e-02
1.744274e-02
2.402324e-02
1.397297e-02
1.993390e-02
3.239565e-02
3.205348e-02
1.909230e-02
2.185338e-02
2.595865e-02
1.485963e-02
2.355492e-02
2.386831e-02
1.559412e-02
1.794467e-02
1.702848e-02
1.827467e-02
1.636030e-02
1.626605e-02
1.640644e-02
1.546745e-02
1.802690e-02
1.814922e-02
3.241510e-02
2.910987e-02
2.245980e-02
2.013138e-02
2.320753e-02
2.173860e-02
2.193451e-02
1.615759e-02
1.713380e-02
1.599509e-02
4.879178e-02
5.168608e-02
5.922728e-02
4.030210e-02
3.495806e-02
2.547091e-02
4.141699e-02
3.237312e-02
4.541382e-02
3.432923e-02
4.560391e-02
4.252726e-02
1.614496e-02
1.382575e-02
1.501574e-02
1.616290e-02
1.488552e-02
1.231840e-02
1.808783e-01
1.815567e-01
1.344120e-01
1.228627e-01
1.754424e-01
1.655699e-01
1.149309e-01
1.067210e-01
4.696920e-02
5.065021e-02
4.662213e-02
5.283228e-02
4.704704e-02
7.391207e-02
7.060225e-02
6.877941e-02
5.780646e-02
8.025066e-02
7.683047e-02
8.987883e-02
5.922690e-02
8.422250e-02
8.733168e-02
5.487183e-02
7.464989e-02
8.798832e-02
8.914641e-02
7.773127e-02
7.870257e-02
7.435798e-02
6.778581e-02
5.350363e-02
6.884254e-02
6.444729e-02
4.442406e-02
5.610093e-02
4.733738e-02
7.702774e-02
6.298244e-02
8.984565e-02
1.067540e-01
1.053139e-01
1.077025e-01
1.109365e-01
1.128013e-01
1.239457e-01
1.299498e-01
1.215929e-01
1.341244e-01
1.224012e-01
1.359765e-01
1.607421e-01
1.911845e-01
1.325006e-01
1.412527e-01
1.595296e-01
1.110013e-01
9.727517e-02
1.040359e-01
1.049337e-01
1.611339e-01
1.850449e-01
1.308617e-01
1.007250e-01
1.110824e-01
1.199296e-01
1.129298e-01
1.839319e-01
2.246046e-01
1.280493e-01
8.590681e-02
8.924463e-02
9.259328e-02
9.844595e-02
1.023061e-01
1.021739e-01
1.689151e-01
2.118239e-01
1.457246e-01
1.844701e-01
1.986588e-01
2.227680e-01
2.007197e-01
1.395640e-01
1.957961e-01
1.732411e-01
1.047289e-01
9.785491e-02
9.675179e-02
9.092413e-02
9.154916e-02
8.600605e-02
1.084023e-01
1.977758e-01
1.810609e-01
1.139248e-01
1.133741e-01
1.141575e-01
9.772481e-02
1.147165e-01
1.701068e-01
1.619555e-01
1.059803e-01
1.011448e-01
9.580226e-02
9.417407e-02
1.426263e-01
1.346007e-01
1.123988e-01
1.688815e-01
1.531185e-01
1.358634e-01
1.471508e-01
1.095177e-01
1.052338e-01
2.171547e-01
2.277022e-01
2.066503e-01
2.469486e-01
1.278794e-01
1.114778e-01
1.408641e-01
1.546355e-01
1.127562e-01
1.327255e-01
1.538915e-01
1.140864e-01
1.293026e-01
1.507029e-01
1.200129e-01
1.229868e-01
1.376290e-01
1.285427e-01
1.321492e-01
1.395722e-01
1.293235e-01
1.239171e-01
1.729041e-01
2.061156e-01
1.233485e-01
9.307586e-02
9.542710e-02
1.153127e-01
1.971864e-01
2.348663e-01
1.489595e-01
1.319004e-01
1.453990e-01
1.167028e-01
1.020595e-01
1.025717e-01
1.021604e-01
1.002570e-01
1.000335e-01
1.314685e-01
1.218645e-01
1.268800e-01
2.117945e-01
1.991780e-01
1.242087e-01
9.998832e-02
9.622275e-02
1.101515e-01
1.882069e-01
1.762177e-01
1.138686e-01
1.111110e-01
1.211884e-01
1.194663e-01
1.118695e-01
1.249389e-01
1.101925e-01
9.957166e-02
1.333683e-01
1.203012e-01
1.017136e-01
1.412395e-01
1.328284e-01
1.060893e-01
1.405065e-01
1.403017e-01
7.703440e-02
7.430795e-02
1.048107e-01
1.089031e-01
1.226202e-01
1.248605e-01
1.590474e-01
1.543233e-01
1.165711e-01
1.261489e-01
1.145788e-01
1.256911e-01
1.195583e-01
1.304170e-01
2.152457e-01
2.360292e-01
1.602733e-01
1.370524e-01
1.432795e-01
1.187371e-01
1.271668e-01
1.438509e-01
1.210014e-01
1.476363e-01
1.708269e-01
1.442282e-01
1.255250e-01
1.120654e-01
8.509221e-02
1.017081e-01
1.671164e-01
2.072716e-01
1.403429e-01
1.551019e-01
1.532250e-01
1.389658e-01
2.079305e-01
2.369291e-01
1.563472e-01
1.533749e-01
1.705199e-01
1.365040e-01
1.658025e-01
1.721693e-01
1.875241e-01
1.758378e-01
1.327918e-01
1.571537e-01
1.480041e-01
1.428810e-01
2.155299e-01
2.106265e-01
1.460343e-01
1.512960e-01
1.621588e-01
1.340154e-01
1.881835e-01
1.699482e-01
1.080274e-01
7.646806e-02
9.553784e-02
1.291567e-01
1.421786e-01
1.695789e-01
1.552221e-01
1.160592e-01
1.320344e-01
1.223844e-01
1.072068e-01
1.311646e-01
1.280903e-01
1.397492e-01
2.123766e-01
2.097161e-01
1.147126e-01
1.246064e-01
1.249146e-01
1.330271e-01
1.459886e-01
1.387299e-01
1.380208e-01
1.521021e-01
1.375240e-01
1.603660e-01
1.075800e-01
1.105037e-01
1.988992e-01
2.256882e-01
1.420526e-01
1.074171e-01
1.042778e-01
9.584702e-02
1.354638e-01
1.652189e-01
1.171733e-01
1.089764e-01
1.148618e-01
1.078743e-01
9.406645e-02
1.006068e-01
1.028525e-01
8.843965e-02
1.106476e-01
1.282893e-01
9.094420e-02
8.766671e-02
8.958802e-02
1.011639e-01
1.807883e-01
2.169752e-01
1.386950e-01
1.366136e-01
1.485389e-01
1.136012e-01
1.191955e-01
1.257595e-01
1.352588e-01
1.260376e-01
1.050084e-01
1.342711e-01
1.294042e-01
1.252819e-01
1.992642e-01
1.877822e-01
1.128362e-01
9.178069e-02
9.104265e-02
8.689798e-02
1.179736e-01
1.113547e-01
8.872370e-02
9.503071e-02
1.022967e-01
9.846213e-02
1.014451e-01
1.105881e-01
1.036922e-01
1.072290e-01
1.573501e-01
1.433841e-01
9.622336e-02
9.717207e-02
1.014311e-01
1.251971e-01
2.073561e-01
2.013760e-01
1.195203e-01
1.139838e-01
1.196065e-01
1.274173e-01
2.049653e-02
2.389356e-02
1.676276e-02
3.322629e-02
6.880069e-02
1.481470e-02
3.245908e-02
7.146737e-02
5.006900e-01
4.788646e-01
2.811595e-01
3.004783e-01
1.856800e-02
1.702403e-02
2.465692e-01
2.176372e-01
2.151732e-01
1.299737e-01
1.175792e-01
3.829566e-01
1.645429e-01
1.664178e-01
4.719283e-02
3.281761e-02
4.538170e-02
3.429542e-02
1.698683e-02
2.615870e-02
1.755130e-02
2.325809e-02
2.086910e-02
1.873260e-02
1.769106e-02
1.778895e-02
2.016250e-02
2.537962e-02
2.099029e-02
2.328084e-02
2.299079e-02
2.483522e-02
1.957225e-02
2.161871e-02
8.540202e-02
7.420350e-02
7.657454e-02
5.984817e-02
5.066298e-02
3.779699e-02
3.010029e-02
2.458944e-02
2.315916e-02
2.237759e-02
2.202288e-02
2.122519e-02
1.684582e-02
1.727351e-02
2.080646e-02
1.778053e-02
1.571730e-02
1.479773e-02
6.544203e-02
5.311890e-02
3.961594e-02
5.721699e-02
5.073101e-02
7.399310e-02
6.960120e-02
5.309947e-02
2.794999e-02
4.589247e-02
8.496376e-02
8.231013e-02
7.386316e-02
1.878610e-02
3.440871e-02
3.329023e-02
2.362300e-02
4.117159e-02
2.439834e-02
2.900770e-02
1.495744e-01
1.583315e-01
7.207498e-02
6.538638e-02
2.963738e-02
4.257166e-02
5.810869e-02
5.591906e-02
7.314652e-02
8.275767e-02
9.633054e-02
8.188373e-02
8.356930e-02
9.099424e-02
8.629451e-02
8.829295e-02
8.848514e-02
6.018392e-02
6.303016e-02
7.196180e-02
3.119309e-02
2.756590e-02
7.235424e-02
7.388535e-02
7.955129e-02
9.458411e-02
7.709362e-02
7.032938e-02
8.211978e-02
9.235539e-02
8.395698e-02
7.730161e-02
7.072077e-02
7.393254e-02
7.908172e-02
8.065822e-02
0.000000e+00
0.000000e+00
0.000000e+00
0.000000e+00
0.000000e+00
0.000000e+00
0.000000e+00
0.000000e+00
0.000000e+00
0.000000e+00
0.000000e+00
0.000000e+00
0.000000e+00
0.000000e+00
0.000000e+00
0.000000e+00
0.000000e+00
0.000000e+00
0.000000e+00
0.000000e+00
0.000000e+00
0.000000e+00
0.000000e+00
0.000000e+00
0.000000e+00
0.000000e+00
0.000000e+00
0.000000e+00
0.000000e+00
0.000000e+00
0.000000e+00
0.000000e+00
0.000000e+00
0.000000e+00
0.000000e+00
0.000000e+00
0.000000e+00
0.000000e+00
0.000000e+00
0.000000e+00
0.000000e+00
0.000000e+00
0.000000e+00
0.000000e+00
0.000000e+00
0.000000e+00
0.000000e+00
0.000000e+00
0.000000e+00
0.000000e+00
0.000000e+00
0.000000e+00
0.000000e+00
0.000000e+00
0.000000e+00
0.000000e+00
0.000000e+00
0.000000e+00
0.000000e+00
0.000000e+00
0.000000e+00
0.000000e+00
0.000000e+00
0.000000e+00
0.000000e+00
0.000000e+00
0.000000e+00
0.000000e+00
0.000000e+00
0.000000e+00
0.000000e+00
0.000000e+00
0.000000e+00
0.000000e+00
0.000000e+00
0.000000e+00
0.000000e+00
0.000000e+00
0.000000e+00
0.000000e+00
0.000000e+00
0.000000e+00
0.000000e+00
0.000000e+00
0.000000e+00
0.000000e+00
0.000000e+00
0.000000e+00
0.000000e+00
0.000000e+00
0.000000e+00
0.000000e+00
0.000000e+00
0.000000e+00
0.000000e+00
0.000000e+00
0.000000e+00
0.000000e+00
0.000000e+00
0.000000e+00
0.000000e+00
0.000000e+00
0.000000e+00
0.000000e+00
0.000000e+00
0.000000e+00
0.000000e+00
0.000000e+00
0.000000e+00
0.000000e+00
0.000000e+00
0.000000e+00
0.000000e+00
0.000000e+00
0.000000e+00
0.000000e+00
0.000000e+00
0.000000e+00
0.000000e+00
0.000000e+00
0.000000e+00
0.000000e+00
0.000000e+00
0.000000e+00
0.000000e+00
0.000000e+00
0.000000e+00
0.000000e+00
0.000000e+00
0.000000e+00
0.000000e+00
0.000000e+00
0.000000e+00
0.000000e+00
0.000000e+00
0.000000e+00
0.000000e+00
0.000000e+00
0.000000e+00
0.000000e+00
0.000000e+00
0.000000e+00
0.000000e+00
0.000000e+00
0.000000e+00
0.000000e+00
0.000000e+00
0.000000e+00
0.000000e+00
0.000000e+00
0.000000e+00
0.000000e+00
0.000000e+00
0.000000e+00
0.000000e+00
0.000000e+00
0.000000e+00
0.000000e+00
0.000000e+00
0.000000e+00
0.000000e+00
0.000000e+00
0.000000e+00
0.000000e+00
0.000000e+00
0.000000e+00
0.000000e+00
0.000000e+00
0.000000e+00
0.000000e+00
0.000000e+00
0.000000e+00
0.000000e+00
0.000000e+00
0.000000e+00
0.000000e+00
0.000000e+00
0.000000e+00
0.000000e+00
0.000000e+00
0.000000e+00
0.000000e+00
0.000000e+00
0.000000e+00
0.000000e+00
0.000000e+00
0.000000e+00
0.000000e+00
0.000000e+00
0.000000e+00
0.000000e+00
0.000000e+00
0.000000e+00
0.000000e+00
0.000000e+00
0.000000e+00
0.000000e+00
0.000000e+00
0.000000e+00
0.000000e+00
0.000000e+00
0.000000e+00
0.000000e+00
0.000000e+00
0.000000e+00
0.000000e+00
0.000000e+00
0.000000e+00
0.000000e+00
0.000000e+00
0.000000e+00
0.000000e+00
0.000000e+00
0.000000e+00
0.000000e+00
0.000000e+00
0.000000e+00
0.000000e+00
0.000000e+00
0.000000e+00
0.000000e+00
0.000000e+00
0.000000e+00
0.000000e+00
0.000000e+00
0.000000e+00
0.000000e+00
0.000000e+00
0.000000e+00
0.000000e+00
0.000000e+00
0.000000e+00
0.000000e+00
0.000000e+00
0.000000e+00
0.000000e+00
0.000000e+00
0.000000e+00
0.000000e+00
0.000000e+00
0.000000e+00
0.000000e+00
0.000000e+00
0.000000e+00
0.000000e+00
0.000000e+00
0.000000e+00
0.000000e+00
0.000000e+00
0.000000e+00
0.000000e+00
0.000000e+00
0.000000e+00
0.000000e+00
0.000000e+00
0.000000e+00
0.000000e+00
0.000000e+00
0.000000e+00
0.000000e+00
0.000000e+00
0.000000e+00
0.000000e+00
0.000000e+00
0.000000e+00
0.000000e+00
0.000000e+00
0.000000e+00
0.000000e+00
0.000000e+00
0.000000e+00
0.000000e+00
0.000000e+00
0.000000e+00
0.000000e+00
0.000000e+00
0.000000e+00
0.000000e+00
0.000000e+00
0.000000e+00
0.000000e+00
0.000000e+00
0.000000e+00
0.000000e+00
0.000000e+00
0.000000e+00
0.000000e+00
0.000000e+00
0.000000e+00
0.000000e+00
0.000000e+00
0.000000e+00
0.000000e+00
0.000000e+00
0.000000e+00
0.000000e+00
0.000000e+00
0.000000e+00
0.000000e+00
0.000000e+00
0.000000e+00
0.000000e+00
0.000000e+00
0.000000e+00
0.000000e+00
0.000000e+00
0.000000e+00
0.000000e+00
0.000000e+00
0.000000e+00
0.000000e+00
0.000000e+00
0.000000e+00
0.000000e+00
0.000000e+00
0.000000e+00
0.000000e+00
0.000000e+00
0.000000e+00
0.000000e+00
0.000000e+00
0.000000e+00
0.000000e+00
0.000000e+00
0.000000e+00
0.000000e+00
0.000000e+00
0.000000e+00
0.000000e+00
0.000000e+00
0.000000e+00
0.000000e+00
0.000000e+00
0.000000e+00
0.000000e+00
0.000000e+00
0.000000e+00
0.000000e+00
0.000000e+00
0.000000e+00
0.000000e+00
0.000000e+00
0.000000e+00
0.000000e+00
0.000000e+00
0.000000e+00
0.000000e+00
0.000000e+00
0.000000e+00
0.000000e+00
0.000000e+00
0.000000e+00
0.000000e+00
0.000000e+00
0.000000e+00
0.000000e+00
0.000000e+00
0.000000e+00
0.000000e+00
0.000000e+00
0.000000e+00
0.000000e+00
0.000000e+00
0.000000e+00
0.000000e+00
0.000000e+00
0.000000e+00
0.000000e+00
0.000000e+00
0.000000e+00
0.000000e+00
0.000000e+00
0.000000e+00
0.000000e+00
0.000000e+00
0.000000e+00
0.000000e+00
0.000000e+00
0.000000e+00
0.000000e+00
0.000000e+00
0.000000e+00
0.000000e+00
0.000000e+00
0.000000e+00
0.000000e+00
0.000000e+00
0.000000e+00
0.000000e+00
0.000000e+00
0.000000e+00
0.000000e+00
0.000000e+00
0.000000e+00
0.000000e+00
0.000000e+00
0.000000e+00
0.000000e+00
0.000000e+00
0.000000e+00
0.000000e+00
0.000000e+00
0.000000e+00
0.000000e+00
0.000000e+00
0.000000e+00
0.000000e+00
0.000000e+00
0.000000e+00
0.000000e+00
0.000000e+00
0.000000e+00
0.000000e+00
0.000000e+00
0.000000e+00
0.000000e+00
0.000000e+00
0.000000e+00
0.000000e+00
0.000000e+00
0.000000e+00
0.000000e+00
0.000000e+00
0.000000e+00
0.000000e+00
0.000000e+00
0.000000e+00
0.000000e+00
0.000000e+00
0.000000e+00
0.000000e+00
0.000000e+00
0.000000e+00
0.000000e+00
0.000000e+00
0.000000e+00
0.000000e+00
0.000000e+00
0.000000e+00
0.000000e+00
0.000000e+00
0.000000e+00
0.000000e+00
0.000000e+00
0.000000e+00
0.000000e+00
0.000000e+00
0.000000e+00
0.000000e+00
0.000000e+00
0.000000e+00
0.000000e+00
0.000000e+00
0.000000e+00
0.000000e+00
0.000000e+00
0.000000e+00
0.000000e+00
0.000000e+00
0.000000e+00
0.000000e+00
0.000000e+00
0.000000e+00
0.000000e+00
0.000000e+00
0.000000e+00
0.000000e+00
0.000000e+00
0.000000e+00
0.000000e+00
0.000000e+00
0.000000e+00
0.000000e+00
0.000000e+00
0.000000e+00
0.000000e+00
0.000000e+00
0.000000e+00
0.000000e+00
0.000000e+00
0.000000e+00
0.000000e+00
0.000000e+00
0.000000e+00
0.000000e+00
0.000000e+00
0.000000e+00
0.000000e+00
0.000000e+00
0.000000e+00
0.000000e+00
0.000000e+00
0.000000e+00
0.000000e+00
0.000000e+00
0.000000e+00
0.000000e+00
0.000000e+00
0.000000e+00
0.000000e+00
0.000000e+00
0.000000e+00
0.000000e+00
0.000000e+00
0.000000e+00
0.000000e+00
0.000000e+00
0.000000e+00
0.000000e+00
0.000000e+00
0.000000e+00
0.000000e+00
0.000000e+00
0.000000e+00
0.000000e+00
0.000000e+00
0.000000e+00
0.000000e+00
0.000000e+00
0.000000e+00
0.000000e+00
0.000000e+00
0.000000e+00
0.000000e+00
0.000000e+00
0.000000e+00
0.000000e+00
0.000000e+00
0.000000e+00
0.000000e+00
0.000000e+00
0.000000e+00
0.000000e+00
0.000000e+00
0.000000e+00
0.000000e+00
0.000000e+00
0.000000e+00
0.000000e+00
0.000000e+00
0.000000e+00
0.000000e+00
0.000000e+00
0.000000e+00
0.000000e+00
0.000000e+00
0.000000e+00
0.000000e+00
0.000000e+00
0.000000e+00
0.000000e+00
0.000000e+00
0.000000e+00
0.000000e+00
0.000000e+00
0.000000e+00
0.000000e+00
0.000000e+00
0.000000e+00
0.000000e+00
0.000000e+00
0.000000e+00
0.000000e+00
0.000000e+00
0.000000e+00
0.000000e+00
0.000000e+00
0.000000e+00
0.000000e+00
0.000000e+00
0.000000e+00
0.000000e+00
0.000000e+00
0.000000e+00
0.000000e+00
0.000000e+00
0.000000e+00
0.000000e+00
0.000000e+00
0.000000e+00
0.000000e+00
0.000000e+00
0.000000e+00
0.000000e+00
0.000000e+00
0.000000e+00
0.000000e+00
0.000000e+00
0.000000e+00
0.000000e+00
0.000000e+00
0.000000e+00
0.000000e+00
0.000000e+00
0.000000e+00
0.000000e+00
0.000000e+00
0.000000e+00
0.000000e+00
0.000000e+00
0.000000e+00
0.000000e+00
0.000000e+00
0.000000e+00
0.000000e+00
0.000000e+00
0.000000e+00
0.000000e+00
0.000000e+00
0.000000e+00
0.000000e+00
0.000000e+00
0.000000e+00
0.000000e+00
0.000000e+00
0.000000e+00
0.000000e+00
0.000000e+00
0.000000e+00
0.000000e+00
0.000000e+00
0.000000e+00
0.000000e+00
0.000000e+00
0.000000e+00
0.000000e+00
0.000000e+00
0.000000e+00
0.000000e+00
0.000000e+00
0.000000e+00
0.000000e+00
0.000000e+00
0.000000e+00
0.000000e+00
0.000000e+00
0.000000e+00
0.000000e+00
0.000000e+00
0.000000e+00
0.000000e+00
0.000000e+00
0.000000e+00
0.000000e+00
0.000000e+00
0.000000e+00
0.000000e+00
0.000000e+00
0.000000e+00
0.000000e+00
0.000000e+00
0.000000e+00
0.000000e+00
0.000000e+00
0.000000e+00
0.000000e+00
0.000000e+00
0.000000e+00
0.000000e+00
0.000000e+00
0.000000e+00
0.000000e+00
0.000000e+00
0.000000e+00
0.000000e+00
0.000000e+00
0.000000e+00
0.000000e+00
0.000000e+00
0.000000e+00
0.000000e+00
0.000000e+00
0.000000e+00
0.000000e+00
0.000000e+00
0.000000e+00
0.000000e+00
0.000000e+00
0.000000e+00
0.000000e+00
0.000000e+00
0.000000e+00
0.000000e+00
0.000000e+00
0.000000e+00
0.000000e+00
0.000000e+00
0.000000e+00
0.000000e+00
0.000000e+00
0.000000e+00
0.000000e+00
0.000000e+00
0.000000e+00
0.000000e+00
0.000000e+00
0.000000e+00
0.000000e+00
0.000000e+00
0.000000e+00
0.000000e+00
0.000000e+00
0.000000e+00
0.000000e+00
0.000000e+00
0.000000e+00
0.000000e+00
0.000000e+00
0.000000e+00
0.000000e+00
0.000000e+00
0.000000e+00
0.000000e+00
0.000000e+00
0.000000e+00
0.000000e+00
0.000000e+00
0.000000e+00
0.000000e+00
0.000000e+00
0.000000e+00
0.000000e+00
0.000000e+00
0.000000e+00
0.000000e+00
0.000000e+00
0.000000e+00
0.000000e+00
0.000000e+00
0.000000e+00
0.000000e+00
0.000000e+00
0.000000e+00
0.000000e+00
0.000000e+00
0.000000e+00
0.000000e+00
0.000000e+00
0.000000e+00
0.000000e+00
0.000000e+00
0.000000e+00
0.000000e+00
0.000000e+00
0.000000e+00
0.000000e+00
0.000000e+00
0.000000e+00
0.000000e+00
0.000000e+00
0.000000e+00
0.000000e+00
0.000000e+00
0.000000e+00
0.000000e+00
0.000000e+00
0.000000e+00
0.000000e+00
0.000000e+00
0.000000e+00
0.000000e+00
0.000000e+00
0.000000e+00
0.000000e+00
0.000000e+00
0.000000e+00
0.000000e+00
0.000000e+00
0.000000e+00
0.000000e+00
0.000000e+00
0.000000e+00
0.000000e+00
0.000000e+00
0.000000e+00
0.000000e+00
0.000000e+00
0.000000e+00
0.000000e+00
0.000000e+00
0.000000e+00
0.000000e+00
0.000000e+00
0.000000e+00
0.000000e+00
0.000000e+00
0.000000e+00
0.000000e+00
0.000000e+00
0.000000e+00
0.000000e+00
0.000000e+00
0.000000e+00
0.000000e+00
0.000000e+00
0.000000e+00
0.000000e+00
0.000000e+00
0.000000e+00
0.000000e+00
0.000000e+00
0.000000e+00
0.000000e+00
0.000000e+00
0.000000e+00
0.000000e+00
0.000000e+00
0.000000e+00
0.000000e+00
0.000000e+00
0.000000e+00
0.000000e+00
0.000000e+00
0.000000e+00
0.000000e+00
0.000000e+00
0.000000e+00
0.000000e+00
0.000000e+00
0.000000e+00
0.000000e+00
0.000000e+00
0.000000e+00
0.000000e+00
0.000000e+00
0.000000e+00
0.000000e+00
0.000000e+00
0.000000e+00
0.000000e+00
0.000000e+00
0.000000e+00
0.000000e+00
0.000000e+00
0.000000e+00
0.000000e+00
0.000000e+00
0.000000e+00
0.000000e+00
0.000000e+00
0.000000e+00
0.000000e+00
0.000000e+00
0.000000e+00
0.000000e+00
0.000000e+00
0.000000e+00
0.000000e+00
0.000000e+00
0.000000e+00
0.000000e+00
0.000000e+00
0.000000e+00
0.000000e+00
0.000000e+00
0.000000e+00
0.000000e+00
0.000000e+00
0.000000e+00
0.000000e+00
0.000000e+00
0.000000e+00
0.000000e+00
0.000000e+00
0.000000e+00
0.000000e+00
0.000000e+00
0.000000e+00
0.000000e+00
0.000000e+00
0.000000e+00
0.000000e+00
0.000000e+00
0.000000e+00
0.000000e+00
0.000000e+00
0.000000e+00
0.000000e+00
0.000000e+00
0.000000e+00
0.000000e+00
0.000000e+00
0.000000e+00
0.000000e+00
0.000000e+00
0.000000e+00
0.000000e+00
0.000000e+00
0.000000e+00
0.000000e+00
0.000000e+00
0.000000e+00
0.000000e+00
0.000000e+00
0.000000e+00