# vtk DataFile Version 3.0
PulseMoM Current Distribution
ASCII
DATASET UNSTRUCTURED_GRID
POINTS 4922 float
9.910852e+01 3.750000e+01 -4.205047e+01
9.160852e+01 4.000000e+01 -4.955047e+01
9.160852e+01 4.500000e+01 -4.455047e+01
9.910852e+01 5.355125e+00 -4.205047e+01
9.160852e+01 1.011114e+01 -4.955047e+01
9.160852e+01 4.500000e+01 2.426848e+01
9.910852e+01 3.750000e+01 2.176848e+01
5.696374e+01 4.000000e+01 -4.955047e+01
5.696374e+01 4.500000e+01 -4.455047e+01
9.910852e+01 5.355125e+00 2.176848e+01
5.700508e+01 0.000000e+00 -4.955047e+01
5.700508e+01 0.000000e+00 2.926848e+01
9.160852e+01 1.011114e+01 2.926848e+01
-4.855143e+01 -5.551115e-15 -4.955047e+01
-8.753697e+01 1.862350e+01 -4.955047e+01
-8.753697e+01 3.500000e+01 -4.955047e+01
-2.454512e+01 3.500000e+01 -4.955047e+01
-2.454512e+01 1.977414e+01 -4.955047e+01
5.696374e+01 1.977414e+01 -4.955047e+01
5.696374e+01 4.500000e+01 2.426848e+01
9.160852e+01 4.000000e+01 2.926848e+01
5.696374e+01 4.000000e+01 2.926848e+01
5.696374e+01 1.977414e+01 2.926848e+01
-5.755658e+01 -5.422127e-17 2.176848e+01
-5.157411e+01 0.000000e+00 2.883335e+01
-5.755658e+01 4.647575e-16 -4.205047e+01
5.433057e+01 0.000000e+00 2.926848e+01
5.433057e+01 0.000000e+00 2.844953e+01
-5.157411e+01 0.000000e+00 2.844953e+01
-2.454512e+01 1.977414e+01 2.926848e+01
-2.454512e+01 3.500000e+01 2.926848e+01
-8.753697e+01 3.500000e+01 2.926848e+01
-8.753697e+01 1.862350e+01 2.926848e+01
-5.157411e+01 4.544374e+00 2.926848e+01
-5.157411e+01 5.000000e+00 2.926848e+01
5.433057e+01 5.000000e+00 2.926848e+01
-9.148200e+01 9.484313e+00 -4.205047e+01
-9.503697e+01 1.175081e+01 -4.205047e+01
-9.503697e+01 3.500000e+01 -4.205047e+01
-8.753697e+01 4.500000e+01 -3.955047e+01
-2.454512e+01 4.500000e+01 -3.955047e+01
-2.454512e+01 4.500000e+01 1.926848e+01
-9.148200e+01 9.484313e+00 2.176848e+01
5.433057e+01 5.000000e+00 2.844953e+01
-5.157411e+01 5.000000e+00 2.844953e+01
-8.753697e+01 4.499880e+01 1.942366e+01
-2.532946e+01 4.500000e+01 1.926848e+01
-2.532946e+01 4.499880e+01 1.942366e+01
-9.503697e+01 1.175081e+01 2.176848e+01
-9.503697e+01 3.500000e+01 2.176848e+01
-9.503697e+01 3.749518e+01 1.942366e+01
-9.503697e+01 3.000000e+01 1.942366e+01
-9.503697e+01 3.000000e+01 -3.478748e+01
-9.503697e+01 3.750000e+01 -3.478748e+01
-9.503697e+01 3.750000e+01 -3.955047e+01
-8.753697e+01 4.500000e+01 -3.478748e+01
-2.532946e+01 4.500000e+01 -3.478748e+01
-2.532946e+01 3.000000e+01 -3.478748e+01
-2.532946e+01 3.000000e+01 1.942366e+01
-2.524943e+01 3.831759e+01 2.626848e+01
-2.524943e+01 3.831759e+01 2.926848e+01
-2.524943e+01 3.500000e+01 2.626848e+01
-2.524943e+01 3.500000e+01 2.926848e+01
5.696374e+01 3.831759e+01 2.926848e+01
5.696374e+01 3.831759e+01 2.626848e+01
5.696374e+01 1.977414e+01 2.626848e+01
-2.454512e+01 1.977414e+01 2.626848e+01
-2.454512e+01 3.500000e+01 2.626848e+01
-2.454512e+01 3.500000e+01 2.926848e+01
-2.454512e+01 1.977414e+01 2.926848e+01
5.696374e+01 1.977414e+01 2.926848e+01
-2.524943e+01 3.831759e+01 2.626848e+01
-2.524943e+01 3.831759e+01 2.926848e+01
-2.524943e+01 3.500000e+01 2.626848e+01
-2.524943e+01 3.500000e+01 2.926848e+01
5.696374e+01 3.831759e+01 2.926848e+01
5.696374e+01 3.831759e+01 2.626848e+01
5.696374e+01 1.977414e+01 2.626848e+01
-2.454512e+01 1.977414e+01 2.626848e+01
-2.454512e+01 3.500000e+01 2.626848e+01
5.696374e+01 1.977414e+01 2.926848e+01
-2.454512e+01 1.977414e+01 2.926848e+01
-2.454512e+01 3.500000e+01 2.926848e+01
-6.059985e+01 4.000000e+00 -5.055047e+01
-6.059985e+01 4.000000e+00 -4.955047e+01
-5.775949e+01 4.000000e+00 -5.055047e+01
-5.775949e+01 4.000000e+00 -5.955047e+01
-5.630019e+01 4.000000e+00 -5.955047e+01
-5.630019e+01 4.000000e+00 -4.955047e+01
-1.093504e+02 0.000000e+00 -4.955047e+01
-1.023988e+02 0.000000e+00 -4.955047e+01
-1.093504e+02 0.000000e+00 -5.955047e+01
-1.071889e+02 0.000000e+00 -5.955047e+01
-1.023988e+02 0.000000e+00 -5.055047e+01
-1.071889e+02 0.000000e+00 -5.055047e+01
-1.023988e+02 0.000000e+00 2.844953e+01
-1.023988e+02 0.000000e+00 2.944953e+01
-5.755658e+01 0.000000e+00 2.944953e+01
-5.755658e+01 0.000000e+00 2.844953e+01
-1.116377e+02 0.000000e+00 2.844953e+01
-5.267121e+01 0.000000e+00 2.844953e+01
-1.084757e+02 0.000000e+00 2.944953e+01
-1.084757e+02 0.000000e+00 3.844953e+01
-1.116377e+02 0.000000e+00 3.844953e+01
-5.483275e+01 0.000000e+00 3.844953e+01
-5.483275e+01 0.000000e+00 2.944953e+01
-5.267121e+01 0.000000e+00 3.844953e+01
5.700508e+01 0.000000e+00 -5.055047e+01
5.700508e+01 0.000000e+00 -4.955047e+01
1.037233e+02 0.000000e+00 -4.955047e+01
1.037233e+02 0.000000e+00 -5.055047e+01
5.433057e+01 0.000000e+00 -5.055047e+01
5.433057e+01 2.409453e+00 -5.055047e+01
1.064540e+02 0.000000e+00 -5.055047e+01
5.433057e+01 0.000000e+00 -4.955047e+01
5.433057e+01 4.000000e+00 -5.955047e+01
5.276068e+01 4.000000e+00 -5.955047e+01
5.433057e+01 4.000000e+00 -4.955047e+01
5.276068e+01 4.000000e+00 -4.955047e+01
5.433057e+01 2.409453e+00 -5.955047e+01
1.096161e+02 0.000000e+00 -4.955047e+01
1.096161e+02 0.000000e+00 -5.955047e+01
1.064540e+02 0.000000e+00 -5.955047e+01
5.700508e+01 0.000000e+00 2.844953e+01
5.700508e+01 0.000000e+00 2.944953e+01
1.037233e+02 0.000000e+00 2.944953e+01
1.037233e+02 0.000000e+00 2.844953e+01
5.433057e+01 0.000000e+00 2.844953e+01
5.433057e+01 4.035691e+00 2.844953e+01
1.073288e+02 0.000000e+00 2.844953e+01
5.433057e+01 0.000000e+00 2.944953e+01
5.433057e+01 4.035691e+00 3.844953e+01
5.433057e+01 2.763213e+00 2.944953e+01
5.433057e+01 2.763213e+00 3.844953e+01
1.051673e+02 0.000000e+00 3.844953e+01
1.073288e+02 0.000000e+00 3.844953e+01
1.051673e+02 0.000000e+00 2.944953e+01
5.433057e+01 4.000000e+00 -6.402050e+01
-5.157411e+01 4.000000e+00 -6.402050e+01
5.433057e+01 4.000000e+00 -4.955047e+01
-5.157411e+01 4.000000e+00 -4.955047e+01
-5.157411e+01 6.759715e+00 -5.955047e+01
5.433057e+01 6.759715e+00 -5.955047e+01
-5.157411e+01 6.759715e+00 -4.955047e+01
5.433057e+01 6.759715e+00 -4.955047e+01
5.398049e+01 1.675971e+01 -5.605047e+01
5.398049e+01 1.175971e+01 -6.105047e+01
-5.157411e+01 1.175971e+01 -6.105047e+01
-5.157411e+01 1.675971e+01 -5.605047e+01
5.398049e+01 6.759715e+00 -6.105047e+01
-5.157411e+01 6.759715e+00 -6.105047e+01
5.398049e+01 1.675971e+01 -4.955047e+01
5.398049e+01 6.759715e+00 -4.955047e+01
-5.157411e+01 6.759715e+00 -4.955047e+01
-5.157411e+01 1.675971e+01 -4.955047e+01
5.433057e+01 5.000000e+00 5.044953e+01
5.433057e+01 6.759715e+00 4.246376e+01
-5.157411e+01 6.759715e+00 4.246376e+01
-5.157411e+01 5.000000e+00 5.044953e+01
-5.157411e+01 6.759715e+00 2.844953e+01
-5.157411e+01 5.000000e+00 2.844953e+01
5.433057e+01 5.000000e+00 2.844953e+01
5.433057e+01 6.759715e+00 2.844953e+01
5.398049e+01 1.175971e+01 3.944953e+01
5.398049e+01 1.675971e+01 3.444953e+01
-5.157411e+01 1.675971e+01 3.444953e+01
-5.157411e+01 1.175971e+01 3.944953e+01
5.398049e+01 6.759715e+00 3.944953e+01
5.398049e+01 6.759715e+00 2.794953e+01
5.398049e+01 1.675971e+01 2.794953e+01
-5.157411e+01 6.759715e+00 3.944953e+01
-5.157411e+01 1.675971e+01 2.794953e+01
-5.157411e+01 6.759715e+00 2.794953e+01
-9.303697e+01 3.000000e+01 -2.991125e+01
-9.503697e+01 3.000000e+01 -2.791125e+01
-9.503697e+01 3.600000e+01 -2.791125e+01
-9.303697e+01 3.600000e+01 -2.991125e+01
-9.503697e+01 4.500000e+01 -1.891125e+01
-9.303697e+01 4.700000e+01 -1.891125e+01
-9.503697e+01 4.500000e+01 3.076016e+00
-9.303697e+01 4.700000e+01 3.076016e+00
-9.503697e+01 3.600000e+01 1.207602e+01
-9.303697e+01 3.600000e+01 1.407602e+01
-9.503697e+01 3.000000e+01 1.207602e+01
-9.303697e+01 3.000000e+01 1.407602e+01
-2.532946e+01 3.600000e+01 -2.991125e+01
-2.532946e+01 3.000000e+01 -2.991125e+01
-2.532946e+01 4.700000e+01 -1.891125e+01
-2.532946e+01 4.700000e+01 3.076016e+00
-2.532946e+01 3.600000e+01 1.407602e+01
-2.532946e+01 3.000000e+01 1.407602e+01
-9.703697e+01 3.906430e+01 -2.222006e+01
-9.653697e+01 3.906430e+01 -2.272006e+01
-9.653697e+01 4.239448e+01 -1.938988e+01
-9.503697e+01 4.239448e+01 -1.938988e+01
-9.703697e+01 3.915645e+01 2.857543e+00
-9.653697e+01 3.915645e+01 2.357543e+00
-9.653697e+01 4.228956e+01 5.490646e+00
-9.503697e+01 4.228956e+01 5.490646e+00
-5.157411e+01 4.000000e+00 -4.955047e+01
-5.157411e+01 4.000000e+00 -6.402050e+01
-6.357411e+01 4.000000e+00 -4.955047e+01
-6.357411e+01 4.000000e+00 -5.572281e+01
-6.324986e+01 4.000000e+00 -6.402050e+01
-6.154274e+01 6.759715e+00 -5.955047e+01
-5.157411e+01 6.759715e+00 -5.955047e+01
-6.357411e+01 6.759715e+00 -5.505047e+01
-6.357411e+01 1.075971e+01 -4.955047e+01
-6.357411e+01 1.075971e+01 -5.505047e+01
-5.757411e+01 1.675971e+01 -5.605047e+01
-5.757411e+01 1.175971e+01 -6.105047e+01
-5.757411e+01 1.675971e+01 -4.955047e+01
-5.757411e+01 6.759715e+00 -6.105047e+01
-5.157411e+01 6.759715e+00 -6.105047e+01
-5.157411e+01 1.675971e+01 -4.955047e+01
-5.157411e+01 1.675971e+01 -5.605047e+01
-5.157411e+01 1.175971e+01 -6.105047e+01
-6.107411e+01 1.175971e+01 3.944953e+01
-6.107411e+01 1.675971e+01 3.444953e+01
-6.757411e+01 1.025971e+01 3.294953e+01
-6.757411e+01 6.759715e+00 3.294953e+01
-6.107411e+01 6.759715e+00 3.944953e+01
-6.107411e+01 1.675971e+01 2.794953e+01
-6.757411e+01 1.025971e+01 2.794953e+01
-6.757411e+01 6.759715e+00 2.794953e+01
-5.157411e+01 6.759715e+00 2.794953e+01
-5.157411e+01 6.759715e+00 3.944953e+01
-5.157411e+01 1.675971e+01 2.794953e+01
-5.157411e+01 1.175971e+01 3.944953e+01
-5.157411e+01 1.675971e+01 3.444953e+01
7.855464e+01 -9.921946e+00 3.400000e+01
7.855464e+01 -9.921946e+00 3.200000e+01
8.177605e+01 -7.929674e+00 3.400000e+01
8.177605e+01 -7.929674e+00 3.300000e+01
8.067638e+01 -7.697663e+00 3.300000e+01
8.067638e+01 -7.697663e+00 3.400000e+01
8.272020e+01 -3.053965e+00 3.400000e+01
8.177605e+01 -3.053965e+00 3.400000e+01
8.272020e+01 -3.053965e+00 3.300000e+01
8.177605e+01 -3.053965e+00 3.300000e+01
8.272020e+01 -8.826710e+00 3.400000e+01
8.272020e+01 -8.826710e+00 3.300000e+01
7.845403e+01 -3.053965e+00 3.400000e+01
7.771222e+01 -3.053965e+00 3.400000e+01
7.978676e+01 -7.929674e+00 3.400000e+01
7.513201e+01 -4.924616e+00 3.400000e+01
[...]
POINT_DATA 4922
SCALARS current_magnitude float 1
LOOKUP_TABLE default
1.043995e-03
2.328952e-03
1.779225e-03
7.753154e-04
8.944327e-04
1.946091e-03
1.032405e-03
2.099041e-03
1.661989e-03
5.210300e-04
3.061013e-04
1.562679e-02
6.478480e-04
4.701000e-04
1.298874e-03
2.183014e-03
1.694882e-03
6.914516e-04
4.685556e-04
1.308247e-03
1.850222e-03
1.639350e-03
1.082539e-03
6.249899e-02
3.987998e-01
4.370092e-04
2.812908e-02
1.824815e-02
3.275766e-01
3.682435e-02
2.157308e-01
2.157278e-03
1.641088e-03
6.298443e-01
5.704523e-01
1.766411e-02
1.512381e-03
1.775580e-03
1.789362e-02
3.448764e-03
1.929470e-03
1.726785e+00
1.382837e-03
1.890046e-02
5.794948e-01
2.790178e-03
2.144828e+00
1.741535e+00
2.522691e-03
1.857421e-02
1.795974e-02
6.295897e-03
5.353857e-03
7.838211e-03
1.707014e-02
3.511012e-03
1.356020e-03
8.293567e-04
1.049459e+00
1.311390e-01
1.513998e-01
1.162474e-01
1.350514e-01
2.554397e-02
4.167229e-02
1.485154e-02
1.156478e-02
5.275106e-02
7.439887e-02
2.326684e-02
8.894941e-03
1.401012e-01
1.393006e-01
1.491559e-01
1.577702e-01
9.867237e-03
1.179018e-02
5.497531e-03
3.611397e-02
8.721887e-02
4.382252e-03
3.537951e-02
9.462485e-02
1.012846e-01
9.313247e-02
8.958447e-02
1.383739e-02
1.793477e-02
6.104389e-02
1.425273e-03
1.600337e-03
1.023235e-03
6.976891e-04
1.464708e-03
1.314414e-03
3.572602e-03
3.720727e-03
1.004473e-02
8.900921e-03
2.577918e-03
6.243830e-03
2.984285e-03
1.831685e-03
1.993619e-03
3.278134e-03
7.712627e-03
3.982971e-03
3.045582e-02
2.932990e-02
1.800674e-02
5.300247e-02
4.147732e-02
2.638582e-02
2.572662e-02
3.798645e-02
5.563869e-03
2.919688e-03
1.631359e-02
5.147259e-03
5.581658e-03
7.022441e-03
5.521105e-03
1.046585e-02
2.153042e-02
2.810619e-02
7.692907e-03
7.743708e-03
3.397007e-02
1.779853e-02
6.580496e-03
3.883773e-02
7.166892e-03
2.106525e-02
5.371808e-03
2.766714e-03
4.100225e-03
6.758966e-03
5.896256e-03
4.493131e-03
3.144708e-03
2.760814e-03
4.034728e-03
5.329179e-03
1.709082e-03
2.766361e-03
4.332066e-04
2.910903e-04
4.818754e-04
3.524316e-04
3.004604e-04
4.405495e-04
4.759846e-04
3.914971e-04
3.331186e-04
2.404646e-04
2.286349e-04
2.458758e-04
1.908147e-04
1.599684e-04
2.630128e-04
2.571093e-04
3.774546e-04
3.299812e-04
2.950566e-04
2.645531e-04
7.480500e-04
6.706873e-04
2.499062e-04
2.569184e-04
2.552012e-04
5.484641e-04
4.238183e-04
4.380743e-04
5.323672e-03
4.862281e-03
4.349958e-03
3.324661e-03
1.131008e-03
7.976778e-04
3.120706e-03
2.557119e-03
3.023697e-03
2.270198e-03
4.300258e-03
4.052380e-03
1.258536e-04
1.219830e-04
9.947132e-05
1.380098e-04
1.313769e-04
1.235568e-04
8.904182e-02
8.254315e-02
8.767351e-02
7.214411e-02
5.852822e-01
4.191407e-01
8.812708e-02
4.860652e-02
1.514521e-03
1.961945e-03
1.839840e-03
2.701499e-03
2.487985e-03
3.377562e-03
2.434672e-03
2.713813e-03
2.520988e-03
3.062569e-03
2.442592e-03
3.011530e-03
1.753910e-03
2.794177e-03
2.546998e-03
1.125448e-03
2.019052e-03
2.749823e-03
2.124190e-03
1.733347e-03
2.717535e-03
2.144378e-03
1.422355e-03
1.358619e-03
2.455815e-03
1.823920e-03
8.673180e-04
9.556367e-04
9.348538e-04
1.891323e-03
1.381571e-03
1.083426e-01
1.064841e-01
6.520081e-01
8.019180e-01
1.747712e+00
1.434884e+00
6.906509e-01
8.907117e-01
7.335984e-01
1.018976e+00
4.916144e-01
6.385420e-01
4.124845e+00
5.265715e+00
2.318747e+00
1.894153e+00
2.276893e+00
1.269694e+00
1.470408e+00
1.751548e+00
1.293974e+00
2.375846e+00
3.156349e+00
2.725760e+00
3.214506e+00
2.445538e+00
1.246481e+00
1.218431e+00
6.204705e-01
6.639933e-01
4.199407e-01
3.421236e-01
3.028514e-01
2.865331e-01
4.867884e-01
5.660641e-01
4.217583e-01
1.086239e+00
1.617655e+00
7.948474e-01
7.914464e-01
7.569214e-01
9.857857e-01
9.782994e-01
8.441715e-01
1.614607e+00
1.365812e+00
5.381258e-01
4.929731e-01
5.048741e-01
3.396153e-01
2.991057e-01
3.780999e-01
3.922594e-01
5.959404e-01
5.748695e-01
1.081788e+00
9.736964e-01
1.769536e+00
3.046560e+00
3.384902e+00
3.526296e+00
3.082840e+00
1.694424e+00
1.690382e+00
1.650912e+00
1.125129e+00
1.906627e+00
1.750057e+00
1.765418e+00
4.373325e+00
4.104073e+00
1.591957e+00
1.552730e+00
1.919929e+00
1.823755e+00
1.869354e+00
2.274423e+00
1.615713e+00
2.262443e+00
1.472367e+00
1.612940e+00
3.542502e+00
4.435953e+00
2.244594e+00
1.790479e+00
2.133087e+00
1.483686e+00
1.880104e+00
2.590563e+00
2.389833e+00
3.898286e+00
4.990693e+00
4.912271e+00
5.382461e+00
4.348887e+00
3.074334e+00
3.374945e+00
6.323348e+00
8.111978e+00
3.396317e+00
2.184470e+00
1.924534e+00
1.523188e+00
2.767290e+00
3.617990e+00
2.243565e+00
4.096106e+00
5.281966e+00
2.575518e+00
2.339186e+00
2.488631e+00
2.948488e+00
2.634803e+00
2.260800e+00
4.733418e+00
4.379397e+00
2.256670e+00
3.236111e+00
2.930353e+00
1.562262e+00
1.729892e+00
2.186034e+00
2.693174e+00
7.121285e+00
6.619406e+00
3.390547e+00
2.642488e+00
3.459530e+00
4.673423e+00
5.217376e+00
5.359284e+00
4.480046e+00
2.585524e+00
2.481546e+00
2.020108e+00
1.347234e+00
1.936746e+00
1.790996e+00
1.838710e+00
3.932815e+00
3.685057e+00
4.460910e-01
3.712282e-01
4.007251e-01
3.498765e-01
8.928216e-01
9.921635e-01
2.054745e+00
1.773297e+00
3.851359e-01
5.173468e-01
4.552823e-01
5.071659e-01
6.303008e-01
8.051060e-01
3.233600e+00
3.464668e+00
1.648669e+00
9.246614e-01
9.012960e-01
6.656279e-01
6.757358e-01
7.994942e-01
8.604035e-01
1.508788e+00
2.004896e+00
1.947716e+00
2.044755e+00
2.317970e+00
2.269448e+00
1.726898e+00
2.369090e+00
2.378965e+00
1.112209e+00
8.973813e-01
7.253441e-01
6.520931e-01
1.412003e+00
1.866340e+00
9.416800e-01
9.392778e-01
1.118859e+00
7.566614e-01
1.085566e+00
1.215661e+00
1.313162e+00
1.156368e+00
8.496716e-01
1.171547e+00
1.133416e+00
8.080392e-01
1.501592e+00
1.323735e+00
7.290705e-01
7.073377e-01
9.528499e-01
1.099547e+00
2.150993e+00
2.527600e+00
1.897814e+00
2.085709e+00
2.381643e+00
2.240907e+00
1.886000e+00
2.101464e+00
1.698180e+00
9.711176e-01
7.861255e-01
7.345546e-01
7.102409e-01
9.227402e-01
1.005922e+00
1.378164e+00
2.845722e+00
3.106264e+00
1.121121e-01
1.160207e-01
1.072283e+00
1.209369e+00
2.587374e+00
1.912854e+00
1.318231e+00
1.275626e+00
1.291393e+00
1.339475e+00
1.392068e+00
1.717776e+00
5.307980e+00
6.661935e+00
2.973323e+00
2.358143e+00
2.698899e+00
1.945056e+00
3.759031e+00
4.977026e+00
3.524213e+00
4.833026e+00
6.249690e+00
6.344493e+00
5.738643e+00
5.172354e+00
3.493543e+00
3.362366e+00
6.460454e+00
7.984667e+00
3.212866e+00
2.063884e+00
1.859203e+00
1.619705e+00
4.249466e+00
5.749401e+00
2.604634e+00
2.420613e+00
2.946264e+00
1.751831e+00
2.577739e+00
2.887311e+00
3.410707e+00
2.993080e+00
1.754314e+00
2.599850e+00
2.426636e+00
2.375764e+00
5.344226e+00
4.884090e+00
2.065017e+00
1.744475e+00
2.090559e+00
2.855210e+00
7.279638e+00
7.164513e+00
4.106504e+00
3.026549e+00
4.568201e+00
6.340323e+00
5.818909e+00
6.367478e+00
5.006469e+00
3.302733e+00
4.528563e+00
4.005376e+00
2.044546e+00
2.432656e+00
2.383894e+00
2.709713e+00
6.082008e+00
5.926350e+00
2.220307e-01
1.932914e-01
2.109395e-01
2.085824e-01
3.523355e-02
5.257196e-02
1.859139e-02
4.861261e-02
1.291243e-01
1.053724e-02
4.167811e-02
1.209700e-01
2.612489e+01
2.426403e+01
1.578680e+01
1.753049e+01
5.592259e-01
2.700227e-01
1.285985e+01
1.099112e+01
1.160852e+01
6.330450e+00
5.394456e+00
1.881843e+01
7.299395e+00
7.756294e+00
1.511258e+00
6.688599e-01
1.349046e+00
6.113380e-01
2.758379e-03
1.603836e-01
2.711019e-03
6.831326e-02
7.144445e-02
3.234788e-02
2.851083e-03
3.050710e-03
3.578643e-03
3.563496e-03
3.506563e-03
3.282578e-03
3.250845e-03
3.492631e-03
3.442850e-03
3.286976e-03
1.586743e+00
1.026286e+00
1.231487e+00
5.018346e-01
3.419171e-01
9.790563e-02
4.275991e-02
5.581943e-03
2.606974e-03
2.633326e-03
3.596019e-03
3.468048e-03
3.014567e-03
3.198426e-03
1.149011e-01
5.243029e-02
2.514471e-03
2.657570e-03
1.421102e+00
1.043768e+00
1.339613e+00
1.239529e+00
2.191066e+00
1.069541e+00
1.663439e+00
1.285342e+00
4.936945e-03
8.142928e-02
3.309958e-02
3.853770e-02
3.044553e-02
6.254728e-03
2.007079e-02
2.581045e-02
7.168111e-03
2.313505e-02
4.166869e-03
1.096440e-01
7.866620e-01
9.785717e-01
2.193158e+00
1.204221e+00
9.261688e-02
8.112682e-02
4.546925e-02
4.486953e-02
8.989108e-02
7.971223e-02
5.651536e-02
4.823292e-02
8.257585e-02
7.153346e-02
7.655212e-02
5.766077e-02
5.827059e-02
3.842759e-02
3.752698e-02
5.763817e-02
7.131490e-02
1.003341e-01
5.524060e-02
4.888591e-02
8.445939e-02
7.095134e-02
5.267211e-02
5.165129e-02
1.917123e-02
2.072175e-02
1.109792e-02
8.957458e-03
1.005810e-02
1.383867e-02
1.337702e-02
1.883161e-02
0.000000e+00
0.000000e+00
0.000000e+00
0.000000e+00
0.000000e+00
0.000000e+00
0.000000e+00
0.000000e+00
0.000000e+00
0.000000e+00
0.000000e+00
0.000000e+00
0.000000e+00
0.000000e+00
0.000000e+00
0.000000e+00
0.000000e+00
0.000000e+00
0.000000e+00
0.000000e+00
0.000000e+00
0.000000e+00
0.000000e+00
0.000000e+00
0.000000e+00
0.000000e+00
0.000000e+00
0.000000e+00
0.000000e+00
0.000000e+00
0.000000e+00
0.000000e+00
0.000000e+00
0.000000e+00
0.000000e+00
0.000000e+00
0.000000e+00
0.000000e+00
0.000000e+00
0.000000e+00
0.000000e+00
0.000000e+00
0.000000e+00
0.000000e+00
0.000000e+00
0.000000e+00
0.000000e+00
0.000000e+00
0.000000e+00
0.000000e+00
0.000000e+00
0.000000e+00
0.000000e+00
0.000000e+00
0.000000e+00
0.000000e+00
0.000000e+00
0.000000e+00
0.000000e+00
0.000000e+00
0.000000e+00
0.000000e+00
0.000000e+00
0.000000e+00
0.000000e+00
0.000000e+00
0.000000e+00
0.000000e+00
0.000000e+00
0.000000e+00
0.000000e+00
0.000000e+00
0.000000e+00
0.000000e+00
0.000000e+00
0.000000e+00
0.000000e+00
0.000000e+00
0.000000e+00
0.000000e+00
0.000000e+00
0.000000e+00
0.000000e+00
0.000000e+00
0.000000e+00
0.000000e+00
0.000000e+00
0.000000e+00
0.000000e+00
0.000000e+00
0.000000e+00
0.000000e+00
0.000000e+00
0.000000e+00
0.000000e+00
0.000000e+00
0.000000e+00
0.000000e+00
0.000000e+00
0.000000e+00
0.000000e+00
0.000000e+00
0.000000e+00
0.000000e+00
0.000000e+00
0.000000e+00
0.000000e+00
0.000000e+00
0.000000e+00
0.000000e+00
0.000000e+00
0.000000e+00
0.000000e+00
0.000000e+00
0.000000e+00
0.000000e+00
0.000000e+00
0.000000e+00
0.000000e+00
0.000000e+00
0.000000e+00
0.000000e+00
0.000000e+00
0.000000e+00
0.000000e+00
0.000000e+00
0.000000e+00
0.000000e+00
0.000000e+00
0.000000e+00
0.000000e+00
0.000000e+00
0.000000e+00
0.000000e+00
0.000000e+00
0.000000e+00
0.000000e+00
0.000000e+00
0.000000e+00
0.000000e+00
0.000000e+00
0.000000e+00
0.000000e+00
0.000000e+00
0.000000e+00
0.000000e+00
0.000000e+00
0.000000e+00
0.000000e+00
0.000000e+00
0.000000e+00
0.000000e+00
0.000000e+00
0.000000e+00
0.000000e+00
0.000000e+00
0.000000e+00
0.000000e+00
0.000000e+00
0.000000e+00
0.000000e+00
0.000000e+00
0.000000e+00
0.000000e+00
0.000000e+00
0.000000e+00
0.000000e+00
0.000000e+00
0.000000e+00
0.000000e+00
0.000000e+00
0.000000e+00
0.000000e+00
0.000000e+00
0.000000e+00
0.000000e+00
0.000000e+00
0.000000e+00
0.000000e+00
0.000000e+00
0.000000e+00
0.000000e+00
0.000000e+00
0.000000e+00
0.000000e+00
0.000000e+00
0.000000e+00
0.000000e+00
0.000000e+00
0.000000e+00
0.000000e+00
0.000000e+00
0.000000e+00
0.000000e+00
0.000000e+00
0.000000e+00
0.000000e+00
0.000000e+00
0.000000e+00
0.000000e+00
0.000000e+00
0.000000e+00
0.000000e+00
0.000000e+00
0.000000e+00
0.000000e+00
0.000000e+00
0.000000e+00
0.000000e+00
0.000000e+00
0.000000e+00
0.000000e+00
0.000000e+00
0.000000e+00
0.000000e+00
0.000000e+00
0.000000e+00
0.000000e+00
0.000000e+00
0.000000e+00
0.000000e+00
0.000000e+00
0.000000e+00
0.000000e+00
0.000000e+00
0.000000e+00
0.000000e+00
0.000000e+00
0.000000e+00
0.000000e+00
0.000000e+00
0.000000e+00
0.000000e+00
0.000000e+00
0.000000e+00
0.000000e+00
0.000000e+00
0.000000e+00
0.000000e+00
0.000000e+00
0.000000e+00
0.000000e+00
0.000000e+00
0.000000e+00
0.000000e+00
0.000000e+00
0.000000e+00
0.000000e+00
0.000000e+00
0.000000e+00
0.000000e+00
0.000000e+00
0.000000e+00
0.000000e+00
0.000000e+00
0.000000e+00
0.000000e+00
0.000000e+00
0.000000e+00
0.000000e+00
0.000000e+00
0.000000e+00
0.000000e+00
0.000000e+00
0.000000e+00
0.000000e+00
0.000000e+00
0.000000e+00
0.000000e+00
0.000000e+00
0.000000e+00
0.000000e+00
0.000000e+00
0.000000e+00
0.000000e+00
0.000000e+00
0.000000e+00
0.000000e+00
0.000000e+00
0.000000e+00
0.000000e+00
0.000000e+00
0.000000e+00
0.000000e+00
0.000000e+00
0.000000e+00
0.000000e+00
0.000000e+00
0.000000e+00
0.000000e+00
0.000000e+00
0.000000e+00
0.000000e+00
0.000000e+00
0.000000e+00
0.000000e+00
0.000000e+00
0.000000e+00
0.000000e+00
0.000000e+00
0.000000e+00
0.000000e+00
0.000000e+00
0.000000e+00
0.000000e+00
0.000000e+00
0.000000e+00
0.000000e+00
0.000000e+00
0.000000e+00
0.000000e+00
0.000000e+00
0.000000e+00
0.000000e+00
0.000000e+00
0.000000e+00
0.000000e+00
0.000000e+00
0.000000e+00
0.000000e+00
0.000000e+00
0.000000e+00
0.000000e+00
0.000000e+00
0.000000e+00
0.000000e+00
0.000000e+00
0.000000e+00
0.000000e+00
0.000000e+00
0.000000e+00
0.000000e+00
0.000000e+00
0.000000e+00
0.000000e+00
0.000000e+00
0.000000e+00
0.000000e+00
0.000000e+00
0.000000e+00
0.000000e+00
0.000000e+00
0.000000e+00
0.000000e+00
0.000000e+00
0.000000e+00
0.000000e+00
0.000000e+00
0.000000e+00
0.000000e+00
0.000000e+00
0.000000e+00
0.000000e+00
0.000000e+00
0.000000e+00
0.000000e+00
0.000000e+00
0.000000e+00
0.000000e+00
0.000000e+00
0.000000e+00
0.000000e+00
0.000000e+00
0.000000e+00
0.000000e+00
0.000000e+00
0.000000e+00
0.000000e+00
0.000000e+00
0.000000e+00
0.000000e+00
0.000000e+00
0.000000e+00
0.000000e+00
0.000000e+00
0.000000e+00
0.000000e+00
0.000000e+00
0.000000e+00
0.000000e+00
0.000000e+00
0.000000e+00
0.000000e+00
0.000000e+00
0.000000e+00
0.000000e+00
0.000000e+00
0.000000e+00
0.000000e+00
0.000000e+00
0.000000e+00
0.000000e+00
0.000000e+00
0.000000e+00
0.000000e+00
0.000000e+00
0.000000e+00
0.000000e+00
0.000000e+00
0.000000e+00
0.000000e+00
0.000000e+00
0.000000e+00
0.000000e+00
0.000000e+00
0.000000e+00
0.000000e+00
0.000000e+00
0.000000e+00
0.000000e+00
0.000000e+00
0.000000e+00
0.000000e+00
0.000000e+00
0.000000e+00
0.000000e+00
0.000000e+00
0.000000e+00
0.000000e+00
0.000000e+00
0.000000e+00
0.000000e+00
0.000000e+00
0.000000e+00
0.000000e+00
0.000000e+00
0.000000e+00
0.000000e+00
0.000000e+00
0.000000e+00
0.000000e+00
0.000000e+00
0.000000e+00
0.000000e+00
0.000000e+00
0.000000e+00
0.000000e+00
0.000000e+00
0.000000e+00
0.000000e+00
0.000000e+00
0.000000e+00
0.000000e+00
0.000000e+00
0.000000e+00
0.000000e+00
0.000000e+00
0.000000e+00
0.000000e+00
0.000000e+00
0.000000e+00
0.000000e+00
0.000000e+00
0.000000e+00
0.000000e+00
0.000000e+00
0.000000e+00
0.000000e+00
0.000000e+00
0.000000e+00
0.000000e+00
0.000000e+00
0.000000e+00
0.000000e+00
0.000000e+00
0.000000e+00
0.000000e+00
0.000000e+00
0.000000e+00
0.000000e+00
0.000000e+00
0.000000e+00
0.000000e+00
0.000000e+00
0.000000e+00
0.000000e+00
0.000000e+00
0.000000e+00
0.000000e+00
0.000000e+00
0.000000e+00
0.000000e+00
0.000000e+00
0.000000e+00
0.000000e+00
0.000000e+00
0.000000e+00
0.000000e+00
0.000000e+00
0.000000e+00
0.000000e+00
0.000000e+00
0.000000e+00
0.000000e+00
0.000000e+00
0.000000e+00
0.000000e+00
0.000000e+00
0.000000e+00
0.000000e+00
0.000000e+00
0.000000e+00
0.000000e+00
0.000000e+00
0.000000e+00
0.000000e+00
0.000000e+00
0.000000e+00
0.000000e+00
0.000000e+00
0.000000e+00
0.000000e+00
0.000000e+00
0.000000e+00
0.000000e+00
0.000000e+00
0.000000e+00
0.000000e+00
0.000000e+00
0.000000e+00
0.000000e+00
0.000000e+00
0.000000e+00
0.000000e+00
0.000000e+00
0.000000e+00
0.000000e+00
0.000000e+00
0.000000e+00
0.000000e+00
0.000000e+00
0.000000e+00
0.000000e+00
0.000000e+00
0.000000e+00
0.000000e+00
0.000000e+00
0.000000e+00
0.000000e+00
0.000000e+00
0.000000e+00
0.000000e+00
0.000000e+00
0.000000e+00
0.000000e+00
0.000000e+00
0.000000e+00
0.000000e+00
0.000000e+00
0.000000e+00
0.000000e+00
0.000000e+00
0.000000e+00
0.000000e+00
0.000000e+00
0.000000e+00
0.000000e+00
0.000000e+00
0.000000e+00
0.000000e+00
0.000000e+00
0.000000e+00
0.000000e+00
0.000000e+00
0.000000e+00
0.000000e+00
0.000000e+00
0.000000e+00
0.000000e+00
0.000000e+00
0.000000e+00
0.000000e+00
0.000000e+00
0.000000e+00
0.000000e+00
0.000000e+00
0.000000e+00
0.000000e+00
0.000000e+00
0.000000e+00
0.000000e+00
0.000000e+00
0.000000e+00
0.000000e+00
0.000000e+00
0.000000e+00
0.000000e+00
0.000000e+00
0.000000e+00
0.000000e+00
0.000000e+00
0.000000e+00
0.000000e+00
0.000000e+00
0.000000e+00
0.000000e+00
0.000000e+00
0.000000e+00
0.000000e+00
0.000000e+00
0.000000e+00
0.000000e+00
0.000000e+00
0.000000e+00
0.000000e+00
0.000000e+00
0.000000e+00
0.000000e+00
0.000000e+00
0.000000e+00
0.000000e+00
0.000000e+00
0.000000e+00
0.000000e+00
0.000000e+00
0.000000e+00
0.000000e+00
0.000000e+00
0.000000e+00
0.000000e+00
0.000000e+00
0.000000e+00
0.000000e+00
0.000000e+00
0.000000e+00
0.000000e+00
0.000000e+00
0.000000e+00
0.000000e+00
0.000000e+00
0.000000e+00
0.000000e+00
0.000000e+00
0.000000e+00
0.000000e+00
0.000000e+00
0.000000e+00
0.000000e+00
0.000000e+00
0.000000e+00
0.000000e+00
0.000000e+00
0.000000e+00
0.000000e+00
0.000000e+00
0.000000e+00
0.000000e+00
0.000000e+00
0.000000e+00
0.000000e+00
0.000000e+00
0.000000e+00
0.000000e+00
0.000000e+00
0.000000e+00
0.000000e+00
0.000000e+00
0.000000e+00
0.000000e+00
0.000000e+00
0.000000e+00
0.000000e+00
0.000000e+00
0.000000e+00
0.000000e+00
0.000000e+00
0.000000e+00
0.000000e+00
0.000000e+00
0.000000e+00
0.000000e+00
0.000000e+00
0.000000e+00
0.000000e+00
0.000000e+00
0.000000e+00
0.000000e+00
0.000000e+00
0.000000e+00
0.000000e+00
0.000000e+00
0.000000e+00
0.000000e+00
0.000000e+00
0.000000e+00
0.000000e+00
0.000000e+00
0.000000e+00
0.000000e+00
0.000000e+00
0.000000e+00
0.000000e+00
0.000000e+00
0.000000e+00
0.000000e+00
0.000000e+00
0.000000e+00
0.000000e+00
0.000000e+00
0.000000e+00
0.000000e+00
0.000000e+00
0.000000e+00
0.000000e+00
0.000000e+00
0.000000e+00
0.000000e+00
0.000000e+00
0.000000e+00
0.000000e+00
0.000000e+00
0.000000e+00
0.000000e+00
0.000000e+00
0.000000e+00
0.000000e+00
0.000000e+00
0.000000e+00
0.000000e+00
0.000000e+00
0.000000e+00
0.000000e+00
0.000000e+00
0.000000e+00
0.000000e+00
0.000000e+00
0.000000e+00
0.000000e+00
0.000000e+00
0.000000e+00
0.000000e+00
0.000000e+00
0.000000e+00
0.000000e+00
0.000000e+00
0.000000e+00
0.000000e+00
0.000000e+00
0.000000e+00
0.000000e+00
0.000000e+00
0.000000e+00
0.000000e+00
0.000000e+00
0.000000e+00
0.000000e+00
0.000000e+00
0.000000e+00
0.000000e+00
0.000000e+00
0.000000e+00
0.000000e+00
0.000000e+00
0.000000e+00
0.000000e+00
0.000000e+00
0.000000e+00
0.000000e+00
0.000000e+00
0.000000e+00
0.000000e+00
0.000000e+00
0.000000e+00
0.000000e+00
0.000000e+00
0.000000e+00
0.000000e+00
0.000000e+00
0.000000e+00
0.000000e+00
0.000000e+00
0.000000e+00
0.000000e+00
0.000000e+00
0.000000e+00
0.000000e+00
0.000000e+00
0.000000e+00
0.000000e+00
0.000000e+00
0.000000e+00
0.000000e+00
0.000000e+00
0.000000e+00
0.000000e+00
0.000000e+00
0.000000e+00
0.000000e+00
0.000000e+00
0.000000e+00
0.000000e+00
0.000000e+00
0.000000e+00
0.000000e+00
0.000000e+00
0.000000e+00
0.000000e+00
0.000000e+00
0.000000e+00
0.000000e+00
0.000000e+00
0.000000e+00
0.000000e+00
0.000000e+00
0.000000e+00
0.000000e+00
0.000000e+00
0.000000e+00
0.000000e+00
0.000000e+00
0.000000e+00
0.000000e+00
0.000000e+00
0.000000e+00
0.000000e+00
0.000000e+00
0.000000e+00
0.000000e+00
0.000000e+00
0.000000e+00
0.000000e+00
0.000000e+00
0.000000e+00
0.000000e+00
0.000000e+00
0.000000e+00
0.000000e+00
0.000000e+00
0.000000e+00
0.000000e+00
0.000000e+00
0.000000e+00
0.000000e+00
0.000000e+00
0.000000e+00
0.000000e+00
0.000000e+00
0.000000e+00
0.000000e+00
0.000000e+00
0.000000e+00
0.000000e+00
0.000000e+00
0.000000e+00
0.000000e+00
0.000000e+00
0.000000e+00
0.000000e+00
0.000000e+00
0.000000e+00
0.000000e+00
0.000000e+00
0.000000e+00
0.000000e+00
0.000000e+00
0.000000e+00
0.000000e+00
0.000000e+00
0.000000e+00
0.000000e+00
0.000000e+00
0.000000e+00
0.000000e+00
0.000000e+00
0.000000e+00
0.000000e+00
0.000000e+00
0.000000e+00
0.000000e+00
0.000000e+00
0.000000e+00
0.000000e+00
0.000000e+00
0.000000e+00
0.000000e+00
0.000000e+00
0.000000e+00
0.000000e+00
0.000000e+00
0.000000e+00
0.000000e+00
0.000000e+00
0.000000e+00
0.000000e+00
0.000000e+00
0.000000e+00
0.000000e+00
0.000000e+00
0.000000e+00
0.000000e+00
0.000000e+00
0.000000e+00
0.000000e+00
0.000000e+00
0.000000e+00